#LAMMPS data file

3238 atoms
3378 bonds

1 atom types
1 bond types

-5.00 255.00 xlo xhi
-5.00 255.00 ylo yhi
-5.00 5.00 zlo zhi

Atoms

1 1 1 145.00 97.00 0.00
2 1 1 24.00 106.00 0.00
3 1 1 59.00 128.00 0.00
4 1 1 228.00 113.00 0.00
5 1 1 72.00 155.00 0.00
6 1 1 231.00 38.00 0.00
7 1 1 108.00 84.00 0.00
8 1 1 183.00 172.00 0.00
9 1 1 214.00 214.00 0.00
10 1 1 232.00 229.00 0.00
11 1 1 213.00 69.00 0.00
12 1 1 207.00 211.00 0.00
13 1 1 109.00 33.00 0.00
14 1 1 119.00 162.00 0.00
15 1 1 83.00 23.00 0.00
16 1 1 225.00 235.00 0.00
17 1 1 200.00 190.00 0.00
18 1 1 143.00 46.00 0.00
19 1 1 177.00 167.00 0.00
20 1 1 212.00 219.00 0.00
21 1 1 221.00 222.00 0.00
22 1 1 221.00 231.00 0.00
23 1 1 32.00 96.00 0.00
24 1 1 124.00 60.00 0.00
25 1 1 28.00 126.00 0.00
26 1 1 117.00 39.00 0.00
27 1 1 119.00 100.00 0.00
28 1 1 203.00 51.00 0.00
29 1 1 131.00 19.00 0.00
30 1 1 7.00 51.00 0.00
31 1 1 120.00 53.00 0.00
32 1 1 149.00 208.00 0.00
33 1 1 110.00 54.00 0.00
34 1 1 234.00 78.00 0.00
35 1 1 124.00 62.00 0.00
36 1 1 219.00 217.00 0.00
37 1 1 73.00 32.00 0.00
38 1 1 242.00 109.00 0.00
39 1 1 30.00 116.00 0.00
40 1 1 111.00 135.00 0.00
41 1 1 199.00 202.00 0.00
42 1 1 83.00 128.00 0.00
43 1 1 134.00 146.00 0.00
44 1 1 232.00 34.00 0.00
45 1 1 241.00 101.00 0.00
46 1 1 124.00 46.00 0.00
47 1 1 232.00 235.00 0.00
48 1 1 243.00 180.00 0.00
49 1 1 136.00 148.00 0.00
50 1 1 76.00 161.00 0.00
51 1 1 66.00 41.00 0.00
52 1 1 109.00 21.00 0.00
53 1 1 120.00 85.00 0.00
54 1 1 86.00 83.00 0.00
55 1 1 217.00 219.00 0.00
56 1 1 71.00 174.00 0.00
57 1 1 13.00 117.00 0.00
58 1 1 164.00 66.00 0.00
59 1 1 67.00 97.00 0.00
60 1 1 235.00 62.00 0.00
61 1 1 197.00 197.00 0.00
62 1 1 125.00 102.00 0.00
63 1 1 104.00 79.00 0.00
64 1 1 122.00 78.00 0.00
65 1 1 193.00 184.00 0.00
66 1 1 205.00 229.00 0.00
67 1 1 12.00 8.00 0.00
68 1 1 28.00 123.00 0.00
69 1 1 220.00 55.00 0.00
70 1 1 141.00 48.00 0.00
71 1 1 175.00 169.00 0.00
72 1 1 49.00 127.00 0.00
73 1 1 13.00 73.00 0.00
74 1 1 179.00 185.00 0.00
75 1 1 113.00 84.00 0.00
76 1 1 119.00 63.00 0.00
77 1 1 36.00 111.00 0.00
78 1 1 117.00 148.00 0.00
79 1 1 151.00 58.00 0.00
80 1 1 40.00 108.00 0.00
81 1 1 238.00 221.00 0.00
82 1 1 176.00 127.00 0.00
83 1 1 92.00 155.00 0.00
84 1 1 161.00 53.00 0.00
85 1 1 227.00 62.00 0.00
86 1 1 9.00 96.00 0.00
87 1 1 234.00 86.00 0.00
88 1 1 69.00 128.00 0.00
89 1 1 123.00 108.00 0.00
90 1 1 110.00 19.00 0.00
91 1 1 25.00 113.00 0.00
92 1 1 92.00 148.00 0.00
93 1 1 116.00 87.00 0.00
94 1 1 217.00 54.00 0.00
95 1 1 49.00 6.00 0.00
96 1 1 244.00 80.00 0.00
97 1 1 8.00 99.00 0.00
98 1 1 22.00 116.00 0.00
99 1 1 142.00 188.00 0.00
100 1 1 138.00 56.00 0.00
101 1 1 133.00 69.00 0.00
102 1 1 223.00 69.00 0.00
103 1 1 5.00 127.00 0.00
104 1 1 157.00 26.00 0.00
105 1 1 233.00 128.00 0.00
106 1 1 162.00 31.00 0.00
107 1 1 203.00 130.00 0.00
108 1 1 38.00 200.00 0.00
109 1 1 204.00 49.00 0.00
110 1 1 113.00 38.00 0.00
111 1 1 49.00 154.00 0.00
112 1 1 176.00 51.00 0.00
113 1 1 152.00 38.00 0.00
114 1 1 136.00 51.00 0.00
115 1 1 161.00 50.00 0.00
116 1 1 145.00 173.00 0.00
117 1 1 144.00 43.00 0.00
118 1 1 117.00 111.00 0.00
119 1 1 111.00 40.00 0.00
120 1 1 203.00 59.00 0.00
121 1 1 154.00 20.00 0.00
122 1 1 112.00 69.00 0.00
123 1 1 12.00 46.00 0.00
124 1 1 68.00 133.00 0.00
125 1 1 93.00 43.00 0.00
126 1 1 214.00 217.00 0.00
127 1 1 22.00 120.00 0.00
128 1 1 152.00 187.00 0.00
129 1 1 181.00 49.00 0.00
130 1 1 229.00 123.00 0.00
131 1 1 42.00 126.00 0.00
132 1 1 100.00 24.00 0.00
133 1 1 137.00 43.00 0.00
134 1 1 190.00 207.00 0.00
135 1 1 193.00 50.00 0.00
136 1 1 100.00 152.00 0.00
137 1 1 187.00 199.00 0.00
138 1 1 165.00 196.00 0.00
139 1 1 156.00 193.00 0.00
140 1 1 140.00 32.00 0.00
141 1 1 183.00 12.00 0.00
142 1 1 180.00 178.00 0.00
143 1 1 212.00 57.00 0.00
144 1 1 110.00 9.00 0.00
145 1 1 118.00 120.00 0.00
146 1 1 145.00 49.00 0.00
147 1 1 100.00 145.00 0.00
148 1 1 244.00 235.00 0.00
149 1 1 117.00 106.00 0.00
150 1 1 5.00 26.00 0.00
151 1 1 76.00 141.00 0.00
152 1 1 235.00 70.00 0.00
153 1 1 49.27 7.46 0.00
154 1 1 50.02 7.96 0.00
155 1 1 50.91 8.17 0.00
156 1 1 51.87 8.60 0.00
157 1 1 52.86 9.06 0.00
158 1 1 53.85 9.55 0.00
159 1 1 54.85 10.05 0.00
160 1 1 55.86 10.52 0.00
161 1 1 56.88 10.98 0.00
162 1 1 57.87 11.51 0.00
163 1 1 58.84 12.40 0.00
164 1 1 59.85 13.00 0.00
165 1 1 60.87 13.49 0.00
166 1 1 61.89 13.97 0.00
167 1 1 62.88 14.49 0.00
168 1 1 63.87 15.01 0.00
169 1 1 64.88 15.49 0.00
170 1 1 65.88 16.00 0.00
171 1 1 66.86 16.52 0.00
172 1 1 67.88 16.99 0.00
173 1 1 68.87 17.18 0.00
174 1 1 69.87 17.23 0.00
175 1 1 70.87 17.58 0.00
176 1 1 71.87 18.04 0.00
177 1 1 72.88 18.49 0.00
178 1 1 73.87 19.01 0.00
179 1 1 74.85 19.55 0.00
180 1 1 75.85 20.05 0.00
181 1 1 76.87 20.19 0.00
182 1 1 77.87 20.56 0.00
183 1 1 78.85 21.07 0.00
184 1 1 79.84 21.58 0.00
185 1 1 80.51 22.40 0.00
186 1 1 81.06 23.35 0.00
187 1 1 81.97 23.56 0.00
188 1 1 13.40 9.55 0.00
189 1 1 13.17 10.59 0.00
190 1 1 12.88 11.65 0.00
191 1 1 12.64 12.61 0.00
192 1 1 12.37 13.52 0.00
193 1 1 12.33 14.64 0.00
194 1 1 11.50 15.29 0.00
195 1 1 10.52 15.83 0.00
196 1 1 9.77 16.64 0.00
197 1 1 9.55 17.59 0.00
198 1 1 9.27 18.62 0.00
199 1 1 8.39 19.45 0.00
200 1 1 7.96 20.47 0.00
201 1 1 7.58 21.52 0.00
202 1 1 7.59 22.59 0.00
203 1 1 7.58 23.60 0.00
204 1 1 7.25 24.61 0.00
205 1 1 6.50 25.50 0.00
206 1 1 111.05 10.00 0.00
207 1 1 111.33 11.00 0.00
208 1 1 111.24 12.00 0.00
209 1 1 111.16 13.00 0.00
210 1 1 111.03 14.00 0.00
211 1 1 110.83 15.00 0.00
212 1 1 110.72 16.00 0.00
213 1 1 110.90 17.00 0.00
214 1 1 110.72 18.00 0.00
215 1 1 182.76 13.84 0.00
216 1 1 182.06 15.17 0.00
217 1 1 181.19 16.32 0.00
218 1 1 180.24 17.37 0.00
219 1 1 179.17 18.30 0.00
220 1 1 178.10 19.22 0.00
221 1 1 177.14 20.26 0.00
222 1 1 176.20 21.33 0.00
223 1 1 175.20 22.32 0.00
224 1 1 174.47 23.26 0.00
225 1 1 173.90 24.24 0.00
226 1 1 173.47 25.33 0.00
227 1 1 173.34 26.39 0.00
228 1 1 172.97 27.41 0.00
229 1 1 172.08 28.31 0.00
230 1 1 171.10 29.26 0.00
231 1 1 170.18 29.99 0.00
232 1 1 169.23 30.25 0.00
233 1 1 168.24 30.67 0.00
234 1 1 167.16 31.05 0.00
235 1 1 166.11 31.15 0.00
236 1 1 165.14 31.57 0.00
237 1 1 163.77 31.62 0.00
238 1 1 110.80 19.47 0.00
239 1 1 111.72 19.64 0.00
240 1 1 112.70 19.70 0.00
241 1 1 113.69 19.73 0.00
242 1 1 114.69 19.71 0.00
243 1 1 115.69 19.70 0.00
244 1 1 116.68 19.40 0.00
245 1 1 117.69 18.93 0.00
246 1 1 118.71 18.75 0.00
247 1 1 119.72 18.68 0.00
248 1 1 120.71 18.68 0.00
249 1 1 121.70 18.69 0.00
250 1 1 122.71 18.67 0.00
251 1 1 123.70 18.70 0.00
252 1 1 124.70 18.69 0.00
253 1 1 125.70 18.35 0.00
254 1 1 126.69 17.95 0.00
255 1 1 127.69 17.79 0.00
256 1 1 128.69 18.07 0.00
257 1 1 129.70 18.82 0.00
258 1 1 130.71 19.36 0.00
259 1 1 131.71 19.90 0.00
260 1 1 132.70 20.77 0.00
261 1 1 133.70 21.73 0.00
262 1 1 134.69 22.73 0.00
263 1 1 135.35 23.73 0.00
264 1 1 135.93 24.68 0.00
265 1 1 136.45 25.68 0.00
266 1 1 136.62 26.69 0.00
267 1 1 136.67 27.70 0.00
268 1 1 137.00 28.74 0.00
269 1 1 137.45 29.74 0.00
270 1 1 137.95 30.71 0.00
271 1 1 138.89 31.45 0.00
272 1 1 110.32 20.33 0.00
273 1 1 129.83 19.41 0.00
274 1 1 128.85 20.28 0.00
275 1 1 127.88 21.25 0.00
276 1 1 126.91 22.24 0.00
277 1 1 126.24 23.24 0.00
278 1 1 125.70 24.24 0.00
279 1 1 125.08 25.18 0.00
280 1 1 124.54 26.15 0.00
281 1 1 123.73 27.17 0.00
282 1 1 122.88 28.24 0.00
283 1 1 121.79 29.16 0.00
284 1 1 120.75 30.13 0.00
285 1 1 119.76 31.13 0.00
286 1 1 118.68 32.07 0.00
287 1 1 118.12 33.15 0.00
288 1 1 117.54 34.13 0.00
289 1 1 116.67 35.12 0.00
290 1 1 116.11 36.16 0.00
291 1 1 116.28 37.42 0.00
292 1 1 155.95 19.86 0.00
293 1 1 157.28 20.47 0.00
294 1 1 158.11 21.31 0.00
295 1 1 158.40 22.25 0.00
296 1 1 158.46 23.26 0.00
297 1 1 157.95 24.52 0.00
298 1 1 152.45 20.36 0.00
299 1 1 151.03 20.86 0.00
300 1 1 150.03 21.53 0.00
301 1 1 149.23 22.33 0.00
302 1 1 148.03 22.94 0.00
303 1 1 147.03 23.50 0.00
304 1 1 146.51 24.53 0.00
305 1 1 146.03 25.63 0.00
306 1 1 145.40 26.55 0.00
307 1 1 144.35 27.32 0.00
308 1 1 143.17 28.05 0.00
309 1 1 141.99 28.83 0.00
310 1 1 141.06 29.90 0.00
311 1 1 140.49 31.07 0.00
312 1 1 107.65 19.94 0.00
313 1 1 106.52 19.55 0.00
314 1 1 105.48 19.44 0.00
315 1 1 104.49 19.46 0.00
316 1 1 103.51 19.52 0.00
317 1 1 102.53 19.93 0.00
318 1 1 101.50 20.60 0.00
319 1 1 100.65 21.98 0.00
320 1 1 110.15 22.00 0.00
321 1 1 110.50 23.00 0.00
322 1 1 110.71 24.00 0.00
323 1 1 110.88 25.00 0.00
324 1 1 111.16 26.00 0.00
325 1 1 111.50 27.00 0.00
326 1 1 111.35 28.00 0.00
327 1 1 110.97 29.00 0.00
328 1 1 110.91 30.00 0.00
329 1 1 110.89 31.00 0.00
330 1 1 110.21 32.00 0.00
331 1 1 83.98 23.42 0.00
332 1 1 84.97 23.54 0.00
333 1 1 85.97 23.57 0.00
334 1 1 86.97 23.57 0.00
335 1 1 87.97 23.59 0.00
336 1 1 88.97 23.59 0.00
337 1 1 89.97 23.59 0.00
338 1 1 90.97 23.59 0.00
339 1 1 91.97 23.57 0.00
340 1 1 92.97 23.57 0.00
341 1 1 93.97 23.58 0.00
342 1 1 94.97 23.91 0.00
343 1 1 95.97 24.34 0.00
344 1 1 96.97 24.50 0.00
345 1 1 97.97 24.56 0.00
346 1 1 98.98 24.39 0.00
347 1 1 82.45 24.50 0.00
348 1 1 81.52 25.25 0.00
349 1 1 80.35 25.62 0.00
350 1 1 79.76 26.55 0.00
351 1 1 79.57 27.53 0.00
352 1 1 79.41 28.42 0.00
353 1 1 79.08 29.45 0.00
354 1 1 78.57 30.38 0.00
355 1 1 78.16 31.46 0.00
356 1 1 77.42 32.23 0.00
357 1 1 76.57 32.22 0.00
358 1 1 75.59 32.18 0.00
359 1 1 74.30 32.18 0.00
360 1 1 98.97 25.71 0.00
361 1 1 98.87 27.00 0.00
362 1 1 99.56 27.84 0.00
363 1 1 100.18 28.74 0.00
364 1 1 100.29 30.01 0.00
365 1 1 100.62 31.12 0.00
366 1 1 101.66 31.98 0.00
367 1 1 102.60 32.98 0.00
368 1 1 103.73 33.88 0.00
369 1 1 104.27 34.96 0.00
370 1 1 104.43 36.23 0.00
371 1 1 105.24 37.26 0.00
372 1 1 106.24 38.23 0.00
373 1 1 107.30 39.18 0.00
374 1 1 108.94 39.73 0.00
375 1 1 159.22 25.11 0.00
376 1 1 160.24 25.54 0.00
377 1 1 160.82 26.44 0.00
378 1 1 161.67 27.42 0.00
379 1 1 162.10 28.92 0.00
380 1 1 156.62 26.93 0.00
381 1 1 155.68 27.50 0.00
382 1 1 155.20 28.43 0.00
383 1 1 154.69 29.40 0.00
384 1 1 153.61 30.29 0.00
385 1 1 152.63 31.28 0.00
386 1 1 151.75 32.32 0.00
387 1 1 151.02 33.29 0.00
388 1 1 150.68 34.24 0.00
389 1 1 150.73 35.29 0.00
390 1 1 151.32 36.41 0.00
391 1 1 151.81 37.29 0.00
392 1 1 160.89 31.37 0.00
393 1 1 160.35 31.91 0.00
394 1 1 160.04 33.06 0.00
395 1 1 159.35 34.21 0.00
396 1 1 158.54 35.06 0.00
397 1 1 157.72 35.84 0.00
398 1 1 156.73 36.36 0.00
399 1 1 155.58 36.64 0.00
400 1 1 154.30 36.75 0.00
401 1 1 153.38 37.03 0.00
402 1 1 152.71 37.56 0.00
403 1 1 140.49 33.13 0.00
404 1 1 140.29 34.17 0.00
405 1 1 139.70 35.22 0.00
406 1 1 139.14 36.23 0.00
407 1 1 138.47 37.19 0.00
408 1 1 137.91 38.18 0.00
409 1 1 137.77 39.19 0.00
410 1 1 137.43 40.20 0.00
411 1 1 136.92 41.19 0.00
412 1 1 136.81 42.11 0.00
413 1 1 107.80 33.01 0.00
414 1 1 106.71 33.31 0.00
415 1 1 105.70 33.77 0.00
416 1 1 104.70 34.61 0.00
417 1 1 103.75 35.63 0.00
418 1 1 102.78 36.33 0.00
419 1 1 101.79 36.89 0.00
420 1 1 100.80 37.75 0.00
421 1 1 99.78 38.34 0.00
422 1 1 98.72 38.78 0.00
423 1 1 97.69 39.25 0.00
424 1 1 96.70 39.43 0.00
425 1 1 95.73 39.87 0.00
426 1 1 94.76 40.39 0.00
427 1 1 93.75 40.85 0.00
428 1 1 93.15 41.79 0.00
429 1 1 110.90 33.28 0.00
430 1 1 112.22 34.02 0.00
431 1 1 113.13 34.83 0.00
432 1 1 113.43 36.04 0.00
433 1 1 232.71 35.34 0.00
434 1 1 232.80 36.42 0.00
435 1 1 232.11 37.27 0.00
436 1 1 113.75 39.66 0.00
437 1 1 114.70 40.08 0.00
438 1 1 115.81 39.71 0.00
439 1 1 112.24 39.24 0.00
440 1 1 151.61 39.98 0.00
441 1 1 150.80 40.95 0.00
442 1 1 149.87 41.61 0.00
443 1 1 148.88 42.15 0.00
444 1 1 147.89 42.67 0.00
445 1 1 146.91 43.53 0.00
446 1 1 145.61 43.67 0.00
447 1 1 230.73 38.47 0.00
448 1 1 230.03 38.67 0.00
449 1 1 229.11 38.72 0.00
450 1 1 228.22 39.13 0.00
451 1 1 227.17 39.87 0.00
452 1 1 226.50 40.79 0.00
453 1 1 226.01 41.81 0.00
454 1 1 225.34 42.70 0.00
455 1 1 224.93 43.54 0.00
456 1 1 224.47 44.50 0.00
457 1 1 224.52 45.62 0.00
458 1 1 224.83 46.63 0.00
459 1 1 224.94 47.64 0.00
460 1 1 224.70 48.68 0.00
461 1 1 224.15 49.60 0.00
462 1 1 224.16 50.70 0.00
463 1 1 223.88 51.77 0.00
464 1 1 222.91 52.66 0.00
465 1 1 221.75 53.51 0.00
466 1 1 220.77 54.29 0.00
467 1 1 118.76 39.24 0.00
468 1 1 119.69 39.97 0.00
469 1 1 120.35 40.87 0.00
470 1 1 121.23 41.51 0.00
471 1 1 122.17 42.08 0.00
472 1 1 123.12 42.97 0.00
473 1 1 123.74 44.29 0.00
474 1 1 112.10 41.08 0.00
475 1 1 112.20 42.09 0.00
476 1 1 112.34 43.12 0.00
477 1 1 112.02 44.15 0.00
478 1 1 111.19 45.14 0.00
479 1 1 110.76 46.12 0.00
480 1 1 110.52 47.11 0.00
481 1 1 110.64 48.12 0.00
482 1 1 111.17 49.15 0.00
483 1 1 111.29 50.16 0.00
484 1 1 111.06 51.15 0.00
485 1 1 111.17 52.16 0.00
486 1 1 110.89 53.11 0.00
487 1 1 67.06 39.85 0.00
488 1 1 68.08 39.47 0.00
489 1 1 69.09 39.68 0.00
490 1 1 70.09 39.75 0.00
491 1 1 71.09 39.80 0.00
492 1 1 72.08 39.90 0.00
493 1 1 73.08 39.94 0.00
494 1 1 74.08 40.24 0.00
495 1 1 75.08 40.69 0.00
496 1 1 76.08 40.90 0.00
497 1 1 77.07 41.00 0.00
498 1 1 78.08 41.31 0.00
499 1 1 79.07 41.78 0.00
500 1 1 80.07 41.96 0.00
501 1 1 81.08 41.95 0.00
502 1 1 82.07 41.99 0.00
503 1 1 83.08 41.98 0.00
504 1 1 84.08 41.92 0.00
505 1 1 85.08 41.99 0.00
506 1 1 86.07 42.01 0.00
507 1 1 87.08 42.30 0.00
508 1 1 88.08 42.65 0.00
509 1 1 89.08 42.84 0.00
510 1 1 90.07 42.68 0.00
511 1 1 91.07 42.25 0.00
512 1 1 92.05 42.42 0.00
513 1 1 138.00 43.86 0.00
514 1 1 139.00 43.72 0.00
515 1 1 140.00 43.67 0.00
516 1 1 141.00 43.46 0.00
517 1 1 142.00 43.05 0.00
518 1 1 143.00 42.98 0.00
519 1 1 135.21 43.40 0.00
520 1 1 133.88 44.14 0.00
521 1 1 132.82 45.10 0.00
522 1 1 131.68 45.99 0.00
523 1 1 130.93 46.93 0.00
524 1 1 130.22 47.81 0.00
525 1 1 128.94 48.48 0.00
526 1 1 127.89 49.40 0.00
527 1 1 126.88 50.38 0.00
528 1 1 125.78 51.31 0.00
529 1 1 125.30 52.45 0.00
530 1 1 125.60 53.85 0.00
531 1 1 125.97 55.18 0.00
532 1 1 125.38 56.00 0.00
533 1 1 124.06 56.60 0.00
534 1 1 123.62 57.98 0.00
535 1 1 143.46 43.82 0.00
536 1 1 143.17 44.83 0.00
537 1 1 11.78 47.78 0.00
538 1 1 11.09 48.75 0.00
539 1 1 10.14 49.36 0.00
540 1 1 9.42 50.16 0.00
541 1 1 8.49 50.74 0.00
542 1 1 124.65 46.16 0.00
543 1 1 125.46 46.41 0.00
544 1 1 126.48 46.63 0.00
545 1 1 127.50 46.98 0.00
546 1 1 128.42 47.66 0.00
547 1 1 129.43 48.45 0.00
548 1 1 130.50 49.22 0.00
549 1 1 131.47 50.29 0.00
550 1 1 132.48 51.24 0.00
551 1 1 133.55 51.74 0.00
552 1 1 134.71 51.60 0.00
553 1 1 122.15 46.13 0.00
554 1 1 120.81 46.81 0.00
555 1 1 120.14 47.77 0.00
556 1 1 119.93 48.76 0.00
557 1 1 119.42 49.70 0.00
558 1 1 119.37 51.12 0.00
559 1 1 142.96 47.68 0.00
560 1 1 142.13 48.70 0.00
561 1 1 141.06 49.52 0.00
562 1 1 140.00 50.08 0.00
563 1 1 138.97 50.58 0.00
564 1 1 137.64 50.97 0.00
565 1 1 142.57 47.73 0.00
566 1 1 143.28 48.63 0.00
567 1 1 142.15 47.50 0.00
568 1 1 143.19 47.79 0.00
569 1 1 144.18 47.78 0.00
570 1 1 145.19 47.58 0.00
571 1 1 146.21 47.76 0.00
572 1 1 147.20 47.98 0.00
573 1 1 148.19 48.06 0.00
574 1 1 149.21 47.57 0.00
575 1 1 150.22 47.01 0.00
576 1 1 151.22 46.90 0.00
577 1 1 152.19 47.43 0.00
578 1 1 153.18 47.64 0.00
579 1 1 154.20 47.16 0.00
580 1 1 155.21 46.98 0.00
581 1 1 156.22 46.82 0.00
582 1 1 157.21 46.86 0.00
583 1 1 158.20 47.04 0.00
584 1 1 159.20 47.04 0.00
585 1 1 160.13 48.08 0.00
586 1 1 182.03 49.62 0.00
587 1 1 183.10 49.84 0.00
588 1 1 184.14 49.95 0.00
589 1 1 185.14 50.21 0.00
590 1 1 186.11 50.66 0.00
591 1 1 187.06 51.23 0.00
592 1 1 188.05 51.39 0.00
593 1 1 189.08 51.08 0.00
594 1 1 190.10 50.85 0.00
595 1 1 191.08 50.70 0.00
596 1 1 192.05 50.28 0.00
597 1 1 179.58 48.29 0.00
598 1 1 178.35 48.16 0.00
599 1 1 177.32 48.22 0.00
600 1 1 176.55 49.19 0.00
601 1 1 203.26 49.99 0.00
602 1 1 202.51 50.97 0.00
603 1 1 201.81 51.96 0.00
604 1 1 201.60 52.95 0.00
605 1 1 201.55 53.95 0.00
606 1 1 201.88 54.95 0.00
607 1 1 202.29 55.95 0.00
608 1 1 202.51 56.96 0.00
609 1 1 202.77 57.98 0.00
610 1 1 205.11 48.04 0.00
611 1 1 206.16 47.69 0.00
612 1 1 207.17 47.25 0.00
613 1 1 208.17 46.79 0.00
614 1 1 209.15 47.02 0.00
615 1 1 210.13 47.47 0.00
616 1 1 211.12 47.62 0.00
617 1 1 212.14 47.95 0.00
618 1 1 213.17 48.67 0.00
619 1 1 214.19 49.54 0.00
620 1 1 215.19 50.53 0.00
621 1 1 215.82 51.60 0.00
622 1 1 216.31 52.78 0.00
623 1 1 161.90 51.15 0.00
624 1 1 162.87 51.15 0.00
625 1 1 163.87 50.97 0.00
626 1 1 164.87 50.92 0.00
627 1 1 165.86 51.07 0.00
628 1 1 166.87 50.97 0.00
629 1 1 167.87 51.28 0.00
630 1 1 168.87 51.69 0.00
631 1 1 169.88 51.80 0.00
632 1 1 170.86 52.03 0.00
633 1 1 171.86 52.09 0.00
634 1 1 172.87 52.01 0.00
635 1 1 173.87 52.01 0.00
636 1 1 174.91 51.70 0.00
637 1 1 159.72 51.00 0.00
638 1 1 159.92 52.00 0.00
639 1 1 194.15 49.21 0.00
640 1 1 195.19 48.96 0.00
641 1 1 196.21 49.17 0.00
642 1 1 197.22 49.53 0.00
643 1 1 198.23 49.65 0.00
644 1 1 199.23 49.69 0.00
645 1 1 200.23 49.69 0.00
646 1 1 201.23 49.66 0.00
647 1 1 202.16 50.09 0.00
648 1 1 136.78 51.96 0.00
649 1 1 137.35 52.81 0.00
650 1 1 137.81 53.66 0.00
651 1 1 137.96 54.74 0.00
652 1 1 204.41 51.39 0.00
653 1 1 205.58 52.12 0.00
654 1 1 206.77 52.51 0.00
655 1 1 207.82 52.66 0.00
656 1 1 208.80 53.09 0.00
657 1 1 209.70 53.71 0.00
658 1 1 210.57 54.40 0.00
659 1 1 211.44 55.42 0.00
660 1 1 120.46 53.55 0.00
661 1 1 120.93 54.40 0.00
662 1 1 121.48 55.33 0.00
663 1 1 122.30 56.32 0.00
664 1 1 123.20 57.34 0.00
665 1 1 123.79 58.55 0.00
666 1 1 160.80 55.60 0.00
667 1 1 160.00 56.68 0.00
668 1 1 159.12 57.12 0.00
669 1 1 158.15 57.61 0.00
670 1 1 157.14 58.04 0.00
671 1 1 156.15 58.22 0.00
672 1 1 155.13 58.23 0.00
673 1 1 154.17 58.66 0.00
674 1 1 152.81 58.73 0.00
675 1 1 111.36 54.30 0.00
676 1 1 112.58 54.64 0.00
677 1 1 113.63 55.44 0.00
678 1 1 114.61 56.41 0.00
679 1 1 115.60 57.41 0.00
680 1 1 116.52 58.48 0.00
681 1 1 117.49 59.51 0.00
682 1 1 118.51 60.49 0.00
683 1 1 118.99 61.67 0.00
684 1 1 110.18 54.89 0.00
685 1 1 110.56 55.81 0.00
686 1 1 110.33 56.83 0.00
687 1 1 110.30 57.83 0.00
688 1 1 110.68 58.78 0.00
689 1 1 110.46 59.81 0.00
690 1 1 109.80 60.85 0.00
691 1 1 109.40 61.84 0.00
692 1 1 109.52 62.81 0.00
693 1 1 109.60 63.79 0.00
694 1 1 109.65 64.83 0.00
695 1 1 110.38 65.83 0.00
696 1 1 111.48 66.81 0.00
697 1 1 112.02 67.87 0.00
698 1 1 217.71 55.55 0.00
699 1 1 218.73 55.70 0.00
700 1 1 215.81 54.69 0.00
701 1 1 214.75 55.25 0.00
702 1 1 213.73 55.44 0.00
703 1 1 212.82 55.99 0.00
704 1 1 220.62 56.38 0.00
705 1 1 221.48 57.52 0.00
706 1 1 222.44 58.56 0.00
707 1 1 223.44 59.56 0.00
708 1 1 224.41 60.59 0.00
709 1 1 225.59 61.41 0.00
710 1 1 138.76 58.25 0.00
711 1 1 139.68 58.97 0.00
712 1 1 140.65 59.55 0.00
713 1 1 141.64 59.76 0.00
714 1 1 142.64 59.80 0.00
715 1 1 143.64 60.15 0.00
716 1 1 144.64 60.25 0.00
717 1 1 145.64 60.29 0.00
718 1 1 146.64 60.33 0.00
719 1 1 147.64 60.31 0.00
720 1 1 148.65 60.29 0.00
721 1 1 149.77 59.53 0.00
722 1 1 137.54 57.00 0.00
723 1 1 136.73 57.67 0.00
724 1 1 135.79 58.23 0.00
725 1 1 134.83 58.76 0.00
726 1 1 133.83 59.60 0.00
727 1 1 132.85 60.56 0.00
728 1 1 131.82 61.19 0.00
729 1 1 130.76 61.69 0.00
730 1 1 129.74 62.53 0.00
731 1 1 128.78 63.51 0.00
732 1 1 127.82 64.18 0.00
733 1 1 126.83 64.74 0.00
734 1 1 125.80 65.57 0.00
735 1 1 124.76 66.50 0.00
736 1 1 124.11 67.49 0.00
737 1 1 123.89 68.49 0.00
738 1 1 123.82 69.48 0.00
739 1 1 123.84 70.51 0.00
740 1 1 123.86 71.53 0.00
741 1 1 123.84 72.52 0.00
742 1 1 123.78 73.49 0.00
743 1 1 123.74 74.46 0.00
744 1 1 123.79 75.49 0.00
745 1 1 123.49 76.51 0.00
746 1 1 123.00 77.48 0.00
747 1 1 123.16 78.47 0.00
748 1 1 123.24 79.48 0.00
749 1 1 122.60 80.48 0.00
750 1 1 121.70 81.47 0.00
751 1 1 121.06 82.47 0.00
752 1 1 120.87 83.47 0.00
753 1 1 120.55 84.32 0.00
754 1 1 151.54 58.12 0.00
755 1 1 152.06 58.82 0.00
756 1 1 152.92 59.68 0.00
757 1 1 153.88 60.62 0.00
758 1 1 154.87 61.28 0.00
759 1 1 155.85 61.52 0.00
760 1 1 156.82 61.64 0.00
761 1 1 157.77 61.74 0.00
762 1 1 158.75 62.11 0.00
763 1 1 159.74 62.57 0.00
764 1 1 160.76 63.02 0.00
765 1 1 161.76 63.52 0.00
766 1 1 162.79 63.97 0.00
767 1 1 163.57 64.83 0.00
768 1 1 124.34 61.00 0.00
769 1 1 123.10 62.83 0.00
770 1 1 122.09 63.23 0.00
771 1 1 121.10 63.45 0.00
772 1 1 120.10 63.45 0.00
773 1 1 124.20 64.03 0.00
774 1 1 124.97 64.99 0.00
775 1 1 125.74 65.84 0.00
776 1 1 126.61 66.87 0.00
777 1 1 127.62 67.80 0.00
778 1 1 128.76 68.60 0.00
779 1 1 129.85 69.48 0.00
780 1 1 131.29 69.58 0.00
781 1 1 228.00 62.41 0.00
782 1 1 229.00 62.54 0.00
783 1 1 230.00 62.53 0.00
784 1 1 231.00 62.45 0.00
785 1 1 232.00 62.45 0.00
786 1 1 233.00 62.48 0.00
787 1 1 234.00 62.30 0.00
788 1 1 226.95 63.35 0.00
789 1 1 226.65 64.50 0.00
790 1 1 225.79 65.49 0.00
791 1 1 224.94 66.36 0.00
792 1 1 224.65 67.31 0.00
793 1 1 224.07 68.21 0.00
794 1 1 237.09 63.00 0.00
795 1 1 237.74 64.00 0.00
796 1 1 237.85 65.00 0.00
797 1 1 238.08 66.00 0.00
798 1 1 238.01 67.00 0.00
799 1 1 237.98 68.00 0.00
800 1 1 237.04 69.00 0.00
801 1 1 118.13 64.12 0.00
802 1 1 117.08 65.08 0.00
803 1 1 116.10 66.09 0.00
804 1 1 115.25 66.90 0.00
805 1 1 114.41 67.61 0.00
806 1 1 113.32 68.38 0.00
807 1 1 112.32 69.33 0.00
808 1 1 111.48 70.46 0.00
809 1 1 110.51 71.15 0.00
810 1 1 109.46 71.66 0.00
811 1 1 108.51 72.55 0.00
812 1 1 107.85 73.51 0.00
813 1 1 107.43 74.31 0.00
814 1 1 106.88 75.17 0.00
815 1 1 106.07 76.16 0.00
816 1 1 105.48 77.17 0.00
817 1 1 104.86 78.09 0.00
818 1 1 212.23 70.56 0.00
819 1 1 212.03 71.70 0.00
820 1 1 212.34 72.72 0.00
821 1 1 212.79 73.72 0.00
822 1 1 212.95 74.70 0.00
823 1 1 213.14 75.60 0.00
824 1 1 213.30 76.50 0.00
825 1 1 213.23 77.56 0.00
826 1 1 213.51 78.59 0.00
827 1 1 214.03 79.54 0.00
828 1 1 214.31 80.45 0.00
829 1 1 214.33 81.47 0.00
830 1 1 214.26 82.53 0.00
831 1 1 214.31 83.50 0.00
832 1 1 214.22 84.57 0.00
833 1 1 214.23 85.56 0.00
834 1 1 214.75 86.42 0.00
835 1 1 215.12 87.48 0.00
836 1 1 215.18 88.54 0.00
837 1 1 215.53 89.56 0.00
838 1 1 216.04 90.53 0.00
839 1 1 216.58 91.49 0.00
840 1 1 217.22 92.63 0.00
841 1 1 217.79 93.65 0.00
842 1 1 218.53 94.51 0.00
843 1 1 218.96 95.57 0.00
844 1 1 219.27 96.71 0.00
845 1 1 220.22 97.62 0.00
846 1 1 221.34 98.17 0.00
847 1 1 222.42 98.65 0.00
848 1 1 223.45 99.14 0.00
849 1 1 224.44 99.66 0.00
850 1 1 225.39 100.52 0.00
851 1 1 226.40 101.13 0.00
852 1 1 227.40 101.66 0.00
853 1 1 228.34 102.22 0.00
854 1 1 229.34 102.73 0.00
855 1 1 230.31 103.58 0.00
856 1 1 230.87 104.60 0.00
857 1 1 231.36 105.64 0.00
858 1 1 232.10 106.71 0.00
859 1 1 232.92 107.47 0.00
860 1 1 233.99 107.63 0.00
861 1 1 235.13 107.93 0.00
862 1 1 236.09 108.76 0.00
863 1 1 236.98 109.44 0.00
864 1 1 237.94 109.67 0.00
865 1 1 239.06 109.65 0.00
866 1 1 240.46 109.38 0.00
867 1 1 222.58 71.33 0.00
868 1 1 222.82 72.71 0.00
869 1 1 223.58 73.82 0.00
870 1 1 224.49 74.88 0.00
871 1 1 225.44 75.59 0.00
872 1 1 226.42 76.15 0.00
873 1 1 227.41 77.02 0.00
874 1 1 228.41 77.96 0.00
875 1 1 229.42 78.61 0.00
876 1 1 230.38 79.20 0.00
877 1 1 231.91 79.07 0.00
878 1 1 234.84 71.75 0.00
879 1 1 235.10 73.01 0.00
880 1 1 235.84 74.11 0.00
881 1 1 236.78 75.12 0.00
882 1 1 237.72 76.16 0.00
883 1 1 238.71 77.17 0.00
884 1 1 239.72 78.15 0.00
885 1 1 240.76 79.12 0.00
886 1 1 242.21 79.71 0.00
887 1 1 11.31 73.82 0.00
888 1 1 10.78 74.77 0.00
889 1 1 10.64 75.76 0.00
890 1 1 10.55 76.74 0.00
891 1 1 10.41 77.72 0.00
892 1 1 10.53 78.74 0.00
893 1 1 10.23 79.75 0.00
894 1 1 10.09 80.80 0.00
895 1 1 9.88 81.79 0.00
896 1 1 9.37 82.71 0.00
897 1 1 9.45 83.73 0.00
898 1 1 9.25 84.75 0.00
899 1 1 8.90 85.77 0.00
900 1 1 8.92 86.80 0.00
901 1 1 8.94 87.81 0.00
902 1 1 8.43 88.78 0.00
903 1 1 7.59 89.72 0.00
904 1 1 7.23 90.74 0.00
905 1 1 7.02 91.79 0.00
906 1 1 6.96 92.80 0.00
907 1 1 6.96 93.81 0.00
908 1 1 7.68 94.88 0.00
909 1 1 121.55 78.83 0.00
910 1 1 120.84 79.26 0.00
911 1 1 119.86 79.62 0.00
912 1 1 118.89 80.11 0.00
913 1 1 118.17 80.67 0.00
914 1 1 117.21 81.12 0.00
915 1 1 116.11 81.77 0.00
916 1 1 115.19 82.32 0.00
917 1 1 114.72 83.42 0.00
918 1 1 114.04 84.18 0.00
919 1 1 123.76 77.74 0.00
920 1 1 124.98 77.70 0.00
921 1 1 125.89 77.89 0.00
922 1 1 126.92 78.21 0.00
923 1 1 127.79 78.75 0.00
924 1 1 128.31 79.72 0.00
925 1 1 129.01 80.88 0.00
926 1 1 129.99 81.84 0.00
927 1 1 130.94 82.88 0.00
928 1 1 131.80 83.63 0.00
929 1 1 132.34 84.65 0.00
930 1 1 133.10 85.43 0.00
931 1 1 134.04 85.99 0.00
932 1 1 134.87 87.03 0.00
933 1 1 135.90 87.94 0.00
934 1 1 136.87 88.96 0.00
935 1 1 137.89 89.59 0.00
936 1 1 139.12 89.86 0.00
937 1 1 140.28 90.20 0.00
938 1 1 141.26 90.72 0.00
939 1 1 142.15 91.69 0.00
940 1 1 143.19 92.58 0.00
941 1 1 144.12 93.66 0.00
942 1 1 144.63 95.25 0.00
943 1 1 234.84 79.00 0.00
944 1 1 235.13 80.00 0.00
945 1 1 235.26 81.00 0.00
946 1 1 235.35 82.00 0.00
947 1 1 235.34 83.00 0.00
948 1 1 235.35 84.00 0.00
949 1 1 234.93 85.00 0.00
950 1 1 102.68 77.90 0.00
951 1 1 101.59 77.92 0.00
952 1 1 100.56 78.28 0.00
953 1 1 99.54 78.68 0.00
954 1 1 98.53 79.14 0.00
955 1 1 97.53 79.66 0.00
956 1 1 96.53 80.14 0.00
957 1 1 95.53 80.65 0.00
958 1 1 94.53 80.82 0.00
959 1 1 93.53 80.85 0.00
960 1 1 92.54 80.90 0.00
961 1 1 91.54 80.92 0.00
962 1 1 90.54 81.25 0.00
963 1 1 89.54 81.72 0.00
964 1 1 88.54 81.52 0.00
965 1 1 87.53 81.10 0.00
966 1 1 86.69 81.67 0.00
967 1 1 103.68 80.79 0.00
968 1 1 104.05 81.94 0.00
969 1 1 104.83 82.99 0.00
970 1 1 106.16 83.69 0.00
971 1 1 109.00 84.96 0.00
972 1 1 110.00 85.32 0.00
973 1 1 111.00 85.46 0.00
974 1 1 112.00 84.99 0.00
975 1 1 114.54 84.46 0.00
976 1 1 115.43 85.57 0.00
977 1 1 118.65 84.96 0.00
978 1 1 117.42 85.07 0.00
979 1 1 116.58 85.90 0.00
980 1 1 235.90 85.58 0.00
981 1 1 236.96 85.88 0.00
982 1 1 237.90 86.36 0.00
983 1 1 239.13 86.73 0.00
984 1 1 239.92 87.50 0.00
985 1 1 239.87 88.57 0.00
986 1 1 240.10 89.64 0.00
987 1 1 240.77 90.69 0.00
988 1 1 241.31 91.71 0.00
989 1 1 241.51 92.72 0.00
990 1 1 241.55 93.73 0.00
991 1 1 241.90 94.57 0.00
992 1 1 242.05 95.51 0.00
993 1 1 242.01 96.53 0.00
994 1 1 242.15 97.46 0.00
995 1 1 242.23 98.58 0.00
996 1 1 241.90 99.79 0.00
997 1 1 117.24 87.71 0.00
998 1 1 117.62 88.63 0.00
999 1 1 117.83 89.58 0.00
1000 1 1 117.80 90.58 0.00
1001 1 1 117.96 91.55 0.00
1002 1 1 117.88 92.57 0.00
1003 1 1 117.63 93.62 0.00
1004 1 1 118.14 94.58 0.00
1005 1 1 118.82 95.53 0.00
1006 1 1 119.17 96.56 0.00
1007 1 1 120.03 97.55 0.00
1008 1 1 120.10 98.68 0.00
1009 1 1 9.95 96.69 0.00
1010 1 1 10.25 97.59 0.00
1011 1 1 10.02 98.56 0.00
1012 1 1 9.26 99.55 0.00
1013 1 1 8.37 100.54 0.00
1014 1 1 7.74 101.54 0.00
1015 1 1 7.50 102.54 0.00
1016 1 1 7.44 103.54 0.00
1017 1 1 7.42 104.54 0.00
1018 1 1 7.41 105.54 0.00
1019 1 1 7.43 106.54 0.00
1020 1 1 7.43 107.54 0.00
1021 1 1 7.43 108.54 0.00
1022 1 1 7.43 109.54 0.00
1023 1 1 7.75 110.54 0.00
1024 1 1 8.20 111.54 0.00
1025 1 1 8.69 112.54 0.00
1026 1 1 9.52 113.54 0.00
1027 1 1 10.46 114.54 0.00
1028 1 1 11.42 115.21 0.00
1029 1 1 12.42 115.76 0.00
1030 1 1 13.42 116.28 0.00
1031 1 1 13.61 116.61 0.00
1032 1 1 30.85 97.99 0.00
1033 1 1 31.16 99.30 0.00
1034 1 1 31.62 100.39 0.00
1035 1 1 32.07 101.44 0.00
1036 1 1 32.88 102.46 0.00
1037 1 1 33.86 103.44 0.00
1038 1 1 34.53 104.43 0.00
1039 1 1 35.05 105.45 0.00
1040 1 1 35.97 106.40 0.00
1041 1 1 36.93 107.40 0.00
1042 1 1 38.22 107.97 0.00
1043 1 1 66.41 98.01 0.00
1044 1 1 65.44 98.41 0.00
1045 1 1 64.56 99.16 0.00
1046 1 1 63.74 100.06 0.00
1047 1 1 62.78 100.66 0.00
1048 1 1 61.83 100.96 0.00
1049 1 1 60.87 101.43 0.00
1050 1 1 59.77 101.66 0.00
1051 1 1 58.61 101.42 0.00
1052 1 1 57.51 101.55 0.00
1053 1 1 56.64 102.34 0.00
1054 1 1 55.63 102.80 0.00
1055 1 1 54.56 103.46 0.00
1056 1 1 53.66 104.64 0.00
1057 1 1 52.73 105.46 0.00
1058 1 1 51.64 105.80 0.00
1059 1 1 50.55 106.09 0.00
1060 1 1 49.54 106.25 0.00
1061 1 1 48.56 106.35 0.00
1062 1 1 47.59 106.76 0.00
1063 1 1 46.52 107.39 0.00
1064 1 1 45.63 108.58 0.00
1065 1 1 44.69 109.71 0.00
1066 1 1 43.57 110.07 0.00
1067 1 1 42.65 110.48 0.00
1068 1 1 41.54 109.95 0.00
1069 1 1 9.71 97.37 0.00
1070 1 1 10.91 96.92 0.00
1071 1 1 12.01 96.69 0.00
1072 1 1 13.09 96.85 0.00
1073 1 1 14.03 97.75 0.00
1074 1 1 14.98 98.81 0.00
1075 1 1 15.98 99.44 0.00
1076 1 1 16.99 99.62 0.00
1077 1 1 18.05 99.89 0.00
1078 1 1 19.07 100.32 0.00
1079 1 1 20.03 100.89 0.00
1080 1 1 21.04 101.70 0.00
1081 1 1 22.01 102.72 0.00
1082 1 1 22.96 103.47 0.00
1083 1 1 23.63 104.44 0.00
1084 1 1 120.42 98.73 0.00
1085 1 1 121.55 98.34 0.00
1086 1 1 122.60 98.19 0.00
1087 1 1 123.63 98.44 0.00
1088 1 1 124.42 99.84 0.00
1089 1 1 118.64 101.12 0.00
1090 1 1 118.17 102.15 0.00
1091 1 1 117.97 103.16 0.00
1092 1 1 118.36 104.24 0.00
1093 1 1 118.87 105.34 0.00
1094 1 1 118.23 106.28 0.00
1095 1 1 117.63 107.26 0.00
1096 1 1 117.62 108.28 0.00
1097 1 1 118.07 109.31 0.00
1098 1 1 118.10 110.24 0.00
1099 1 1 240.92 101.68 0.00
1100 1 1 241.46 102.64 0.00
1101 1 1 241.27 103.52 0.00
1102 1 1 240.98 104.41 0.00
1103 1 1 240.90 105.38 0.00
1104 1 1 240.90 106.38 0.00
1105 1 1 240.86 107.47 0.00
1106 1 1 240.53 108.50 0.00
1107 1 1 240.55 109.55 0.00
1108 1 1 240.79 110.64 0.00
1109 1 1 240.84 111.65 0.00
1110 1 1 240.73 112.62 0.00
1111 1 1 240.67 113.61 0.00